
     Program PWSCF v.7.2 starts on  1Feb2024 at  9:12:40 

     This program is part of the open-source Quantum ESPRESSO suite
     for quantum simulation of materials; please cite
         "P. Giannozzi et al., J. Phys.:Condens. Matter 21 395502 (2009);
         "P. Giannozzi et al., J. Phys.:Condens. Matter 29 465901 (2017);
         "P. Giannozzi et al., J. Chem. Phys. 152 154105 (2020);
          URL http://www.quantum-espresso.org", 
     in publications or presentations arising from this work. More details at
     http://www.quantum-espresso.org/quote

     Parallel version (MPI), running on     1 processors

     MPI processes distributed on     1 nodes
     226859 MiB available memory on the printing compute node when the environment starts
 
     Reading input from espresso.pwi
Warning: card &CELL ignored
Warning: card / ignored

     Current dimensions of program PWSCF are:
     Max number of different atomic species (ntypx) = 10
     Max number of k-points (npk) =  40000
     Max angular momentum in pseudopotentials (lmaxx) =  4

     gamma-point specific algorithms are used
 
     Subspace diagonalization in iterative solution of the eigenvalue problem:
     a serial algorithm will be used

 
     G-vector sticks info
     --------------------
     sticks:   dense  smooth     PW     G-vecs:    dense   smooth      PW
     Sum        2253    2253    569                81313    81313   10131
 
     Using Slab Decomposition
 


     bravais-lattice index     =            0
     lattice parameter (alat)  =      18.8973  a.u.
     unit-cell volume          =    6748.3345 (a.u.)^3
     number of atoms/cell      =            3
     number of atomic types    =            1
     number of electrons       =        18.00
     number of Kohn-Sham states=            9
     kinetic-energy cutoff     =      20.0000  Ry
     charge density cutoff     =      80.0000  Ry
     scf convergence threshold =      1.0E-06
     mixing beta               =       0.7000
     number of iterations used =            8  plain     mixing
     Exchange-correlation= PBE
                           (   1   4   3   4   0   0   0)

     celldm(1)=  18.897261  celldm(2)=   0.000000  celldm(3)=   0.000000
     celldm(4)=   0.000000  celldm(5)=   0.000000  celldm(6)=   0.000000

     crystal axes: (cart. coord. in units of alat)
               a(1) = (   1.000000   0.000000   0.000000 )  
               a(2) = (   0.000000   1.000000   0.000000 )  
               a(3) = (   0.000000   0.000000   1.000000 )  

     reciprocal axes: (cart. coord. in units 2 pi/alat)
               b(1) = (  1.000000  0.000000  0.000000 )  
               b(2) = (  0.000000  1.000000  0.000000 )  
               b(3) = (  0.000000  0.000000  1.000000 )  


     PseudoPot. # 1 for O  read from file:
     /home/linsco_e/code/koopmans_cwl/workflows/kcw/O_ONCV_PBE-1.2.upf
     MD5 check sum: e36c48deb68f4e355fffe4602be2c42c
     Pseudo is Norm-conserving, Zval =  6.0
     Generated using ONCVPSP code by D. R. Hamann
     Using radial grid of  602 points,  4 beta functions with: 
                l(1) =   0
                l(2) =   0
                l(3) =   1
                l(4) =   1

     atomic species   valence    mass     pseudopotential
        O              6.00    15.99900     O ( 1.00)

     No symmetry found



   Cartesian axes

     site n.     atom                  positions (alat units)
         1           O   tau(   1) = (   0.7086900   0.6000000   0.5890000  )
         2           O   tau(   2) = (   0.8173800   0.6000000   0.6500000  )
         3           O   tau(   3) = (   0.6000000   0.6000000   0.6500000  )

     number of k points=     1
                       cart. coord. in units 2pi/alat
        k(    1) = (   0.0000000   0.0000000   0.0000000), wk =   2.0000000

     Dense  grid:    40657 G-vectors     FFT dimensions: (  54,  54,  54)

     Estimated max dynamical RAM per process >      33.30 MB

     Initial potential from superposition of free atoms

     starting charge      17.9971, renormalised to      18.0000

     negative rho (up, down):  8.556E-01 0.000E+00
     Starting wfcs are random

     total cpu time spent up to now is        0.2 secs

     Self-consistent Calculation

     iteration #  1     ecut=    20.00 Ry     beta= 0.70
     Davidson diagonalization with overlap
     ethr =  1.00E-02,  avg # of iterations = 18.0

     negative rho (up, down):  1.520E-01 0.000E+00

     total cpu time spent up to now is        0.4 secs

     total energy              =     -89.08108376 Ry
     estimated scf accuracy    <       2.15456371 Ry

     iteration #  2     ecut=    20.00 Ry     beta= 0.70
     Davidson diagonalization with overlap
     ethr =  1.00E-02,  avg # of iterations =  3.0

     negative rho (up, down):  8.181E-02 0.000E+00

     total cpu time spent up to now is        0.5 secs

     total energy              =     -89.98241878 Ry
     estimated scf accuracy    <       0.79082653 Ry

     iteration #  3     ecut=    20.00 Ry     beta= 0.70
     Davidson diagonalization with overlap
     ethr =  4.39E-03,  avg # of iterations =  2.0

     negative rho (up, down):  1.183E-02 0.000E+00

     total cpu time spent up to now is        0.6 secs

     total energy              =     -90.05280325 Ry
     estimated scf accuracy    <       0.05134017 Ry

     iteration #  4     ecut=    20.00 Ry     beta= 0.70
     Davidson diagonalization with overlap
     ethr =  2.85E-04,  avg # of iterations =  3.0

     negative rho (up, down):  1.188E-03 0.000E+00

     total cpu time spent up to now is        0.7 secs

     total energy              =     -90.06845530 Ry
     estimated scf accuracy    <       0.00748402 Ry

     iteration #  5     ecut=    20.00 Ry     beta= 0.70
     Davidson diagonalization with overlap
     ethr =  4.16E-05,  avg # of iterations =  2.0

     negative rho (up, down):  2.081E-05 0.000E+00

     total cpu time spent up to now is        0.8 secs

     total energy              =     -90.07030578 Ry
     estimated scf accuracy    <       0.00046715 Ry

     iteration #  6     ecut=    20.00 Ry     beta= 0.70
     Davidson diagonalization with overlap
     ethr =  2.60E-06,  avg # of iterations =  2.0

     negative rho (up, down):  1.343E-06 0.000E+00

     total cpu time spent up to now is        0.9 secs

     total energy              =     -90.07037825 Ry
     estimated scf accuracy    <       0.00005229 Ry

     iteration #  7     ecut=    20.00 Ry     beta= 0.70
     Davidson diagonalization with overlap
     ethr =  2.90E-07,  avg # of iterations =  3.0

     negative rho (up, down):  6.977E-08 0.000E+00

     total cpu time spent up to now is        0.9 secs

     total energy              =     -90.07039848 Ry
     estimated scf accuracy    <       0.00001841 Ry

     iteration #  8     ecut=    20.00 Ry     beta= 0.70
     Davidson diagonalization with overlap
     ethr =  1.02E-07,  avg # of iterations =  2.0

     total cpu time spent up to now is        1.0 secs

     End of self-consistent calculation

          k = 0.0000 0.0000 0.0000 (  5066 PWs)   bands (ev):

   -38.7794 -31.0534 -22.6645 -14.7645 -14.7532 -14.3756  -8.2089  -7.0191
    -6.4232

     highest occupied level (ev):    -6.4232

!    total energy              =     -90.07040293 Ry
     estimated scf accuracy    <       0.00000030 Ry

     The total energy is the sum of the following terms:
     one-electron contribution =    -204.72865316 Ry
     hartree contribution      =     103.27030618 Ry
     xc contribution           =     -19.28361427 Ry
     ewald contribution        =      30.67155832 Ry

     convergence has been achieved in   8 iterations

     Writing all to output data dir /home/linsco_e/code/koopmans_cwl/workflows/kcw/tmp/pwscf.save/
 
     init_run     :      0.12s CPU      0.17s WALL (       1 calls)
     electrons    :      0.79s CPU      0.81s WALL (       1 calls)

     Called by init_run:
     wfcinit      :      0.02s CPU      0.03s WALL (       1 calls)
     potinit      :      0.06s CPU      0.07s WALL (       1 calls)
     hinit0       :      0.02s CPU      0.04s WALL (       1 calls)

     Called by electrons:
     c_bands      :      0.42s CPU      0.42s WALL (       8 calls)
     sum_band     :      0.07s CPU      0.07s WALL (       8 calls)
     v_of_rho     :      0.29s CPU      0.32s WALL (       9 calls)
     mix_rho      :      0.04s CPU      0.04s WALL (       8 calls)

     Called by c_bands:
     init_us_2    :      0.01s CPU      0.01s WALL (      17 calls)
     init_us_2:cp :      0.01s CPU      0.01s WALL (      17 calls)
     regterg      :      0.40s CPU      0.40s WALL (       8 calls)

     Called by *egterg:
     rdiaghg      :      0.01s CPU      0.01s WALL (      43 calls)
     h_psi        :      0.37s CPU      0.37s WALL (      44 calls)
     g_psi        :      0.00s CPU      0.00s WALL (      35 calls)

     Called by h_psi:
     h_psi:calbec :      0.02s CPU      0.02s WALL (      44 calls)
     vloc_psi     :      0.34s CPU      0.34s WALL (      44 calls)
     add_vuspsi   :      0.01s CPU      0.01s WALL (      44 calls)

     General routines
     calbec       :      0.02s CPU      0.02s WALL (      44 calls)
     fft          :      0.07s CPU      0.09s WALL (      71 calls)
     ffts         :      0.01s CPU      0.01s WALL (       8 calls)
     fftw         :      0.31s CPU      0.31s WALL (     368 calls)
 
     Parallel routines
 
     PWSCF        :      0.92s CPU      1.02s WALL

 
   This run was terminated on:   9:12:41   1Feb2024            

=------------------------------------------------------------------------------=
   JOB DONE.
=------------------------------------------------------------------------------=
